 Gaussian 09, Revision B.01,
 Gaussian 09:  EM64L-G09RevB.01 12-Aug-2010

 ---------------------------------------
 #N CCSD(T)/cc-pVTZ SP Geom=Connectivity
 ---------------------------------------

 ---
 H2+
 ---
 Symbolic Z-matrix:
 Charge =  1 Multiplicity = 2

                         Standard orientation:
 ---------------------------------------------------------------------
 Center     Atomic      Atomic             Coordinates (Angstroms)
 Number     Number       Type             X           Y           Z
 ---------------------------------------------------------------------
      1          1           0        0.000000    0.000000    0.350000
      2          1           0        0.000000    0.000000   -0.350000
 ---------------------------------------------------------------------

 SCF Done:  E(UHF) = -0.556518193591     A.U. after    6 cycles
 E2 =     0.0000000000D+00 EUMP2 =    -0.55651819359087D+00
 CCSD(T)= -0.55651819359D+00

 The electronic state is 2-SGG.
 Alpha  occ. eigenvalues --   -1.31249
 Alpha virt. eigenvalues --   -0.18855  -0.05170   0.19318   0.19318   0.20761
 Alpha virt. eigenvalues --    0.65231   0.68318   0.68318   1.14209   1.75166
 Alpha virt. eigenvalues --    1.75257   2.57394   2.57394   2.75767   2.75767

 Mulliken atomic charges:
              1
     1  H    0.500000
     2  H    0.500000
 Sum of Mulliken atomic charges =   1.00000

 Dipole moment (field-independent basis, Debye):
    X=              0.0000    Y=              0.0000    Z=              0.0000  Tot=              0.0000
 Quadrupole moment (field-independent basis, Debye-Ang):
   XX=             -0.6718   YY=             -0.6718   ZZ=              0.2719
   XY=              0.0000   XZ=              0.0000   YZ=              0.0000

 Normal termination of Gaussian 09 at Mon Feb 26 14:04:13 2024.
