 Gaussian 09, Revision B.01,
 Gaussian 09:  EM64L-G09RevB.01 12-Aug-2010

 ---------------------------------------
 #N CCSD(T)/cc-pVTZ SP Geom=Connectivity
 ---------------------------------------

 ---
 H3+
 ---
 Symbolic Z-matrix:
 Charge =  1 Multiplicity = 1

                         Standard orientation:
 ---------------------------------------------------------------------
 Center     Atomic      Atomic             Coordinates (Angstroms)
 Number     Number       Type             X           Y           Z
 ---------------------------------------------------------------------
      1          1           0        0.000000    0.502589    0.000000
      2          1           0       -0.435255   -0.251295    0.000000
      3          1           0        0.435255   -0.251295    0.000000
 ---------------------------------------------------------------------

 SCF Done:  E(RHF) =  -1.29964393308     A.U. after    6 cycles
 E2 =    -0.3402830169D-01 EUMP2 =    -0.13336722347674D+01
 CCSD(T)= -0.13415281458D+01

 The electronic state is 1-A1'.
 Alpha  occ. eigenvalues --   -1.20977
 Alpha virt. eigenvalues --   -0.19193  -0.19193  -0.03508   0.19384   0.20665
 Alpha virt. eigenvalues --    0.20665   0.57503   0.57503   0.69097   0.69097
 Alpha virt. eigenvalues --    0.70272   1.02168   1.19426   1.19426   1.94179

 Mulliken atomic charges:
              1
     1  H    0.333333
     2  H    0.333333
     3  H    0.333333
 Sum of Mulliken atomic charges =   1.00000

 Dipole moment (field-independent basis, Debye):
    X=              0.0000    Y=              0.0000    Z=              0.0000  Tot=              0.0000
 Quadrupole moment (field-independent basis, Debye-Ang):
   XX=             -0.2284   YY=             -0.2284   ZZ=             -1.4787
   XY=              0.0000   XZ=              0.0000   YZ=              0.0000

 CCSD(T)/cc-pVTZ SP Geom=Connectivity\\H3+\\1,1\H\H,1,0.87051\H,1,0.870
 DQ=-1.3409331\CCSD=-1.3415281\CCSD(T)=-1.3415281\RMSD=5.134e-10\PG=D03
 Normal termination of Gaussian 09 at Mon Feb 26 14:11:02 2024.
