 Gaussian 09, Revision B.01,
 Gaussian 09:  EM64L-G09RevB.01 12-Aug-2010

 ---------------------------------------
 #N CCSD(T)/cc-pVTZ SP Geom=Connectivity
 ---------------------------------------

 --
 H2
 --
 Symbolic Z-matrix:
 Charge =  0 Multiplicity = 1

                         Standard orientation:
 ---------------------------------------------------------------------
 Center     Atomic      Atomic             Coordinates (Angstroms)
 Number     Number       Type             X           Y           Z
 ---------------------------------------------------------------------
      1          1           0        0.000000    0.000000    0.350000
      2          1           0        0.000000    0.000000   -0.350000
 ---------------------------------------------------------------------

 SCF Done:  E(RHF) =  -1.13207566565     A.U. after    6 cycles
 E2 =    -0.3153820146D-01 EUMP2 =    -0.11636138671117D+01
 CCSD(T)= -0.11710145906D+01

 The electronic state is 1-SGG.
 Alpha  occ. eigenvalues --   -0.60734
 Alpha virt. eigenvalues --    0.17268   0.30126   0.65925   0.69726   0.69726
 Alpha virt. eigenvalues --    1.10682   1.12615   1.12615   1.54254   2.34903
 Alpha virt. eigenvalues --    2.38502   3.18201   3.18201   3.43511   3.43511

 Mulliken atomic charges:
              1
     1  H    0.000000
     2  H    0.000000
 Sum of Mulliken atomic charges =   0.00000

 Dipole moment (field-independent basis, Debye):
    X=              0.0000    Y=              0.0000    Z=              0.0000  Tot=              0.0000
 Quadrupole moment (field-independent basis, Debye-Ang):
   XX=             -2.0259   YY=             -2.0259   ZZ=             -1.4617
   XY=              0.0000   XZ=              0.0000   YZ=              0.0000

 1.1707242\MP4DQ=-1.1704189\MP4SDQ=-1.1704814\CCSD=-1.1710146\CCSD(T)=-
 Normal termination of Gaussian 09 at Mon Feb 26 14:02:43 2024.
